108
Lattice="11.55 0.0 0.0 0.0 11.55 0.0 0.0 0.0 11.55" Properties=species:S:1:pos:R:3 energy=-778.195479 pbc="T T T"
Ir       0.00000000       0.00000000       0.00000000
Ir       0.00000000       1.92500000       1.92500000
Ir       1.92500000       0.00000000       1.92500000
Rh       1.92500000       1.92500000       0.00000000
Rh       0.00000000       0.00000000       3.85000000
Ir       0.00000000       1.92500000       5.77500000
Pd       1.92500000       0.00000000       5.77500000
Ir       1.92500000       1.92500000       3.85000000
Ir       0.00000000       0.00000000       7.70000000
Pt       0.00000000       1.92500000       9.62500000
Ru       1.92500000       0.00000000       9.62500000
Pd       1.92500000       1.92500000       7.70000000
Pt       0.00000000       3.85000000       0.00000000
Ru       0.00000000       5.77500000       1.92500000
Ru       1.92500000       3.85000000       1.92500000
Ir       1.92500000       5.77500000       0.00000000
Ir       0.00000000       3.85000000       3.85000000
Rh       0.00000000       5.77500000       5.77500000
Rh       1.92500000       3.85000000       5.77500000
Ir       1.92500000       5.77500000       3.85000000
Rh       0.00000000       3.85000000       7.70000000
Pt       0.00000000       5.77500000       9.62500000
Pd       1.92500000       3.85000000       9.62500000
Ru       1.92500000       5.77500000       7.70000000
Pt       0.00000000       7.70000000       0.00000000
Pt       0.00000000       9.62500000       1.92500000
Ir       1.92500000       7.70000000       1.92500000
Rh       1.92500000       9.62500000       0.00000000
Ru       0.00000000       7.70000000       3.85000000
Rh       0.00000000       9.62500000       5.77500000
Pt       1.92500000       7.70000000       5.77500000
Rh       1.92500000       9.62500000       3.85000000
Pd       0.00000000       7.70000000       7.70000000
Pt       0.00000000       9.62500000       9.62500000
Rh       1.92500000       7.70000000       9.62500000
Ru       1.92500000       9.62500000       7.70000000
Pd       3.85000000       0.00000000       0.00000000
Rh       3.85000000       1.92500000       1.92500000
Pt       5.77500000       0.00000000       1.92500000
Ir       5.77500000       1.92500000       0.00000000
Ru       3.85000000       0.00000000       3.85000000
Rh       3.85000000       1.92500000       5.77500000
Pd       5.77500000       0.00000000       5.77500000
Ru       5.77500000       1.92500000       3.85000000
Pd       3.85000000       0.00000000       7.70000000
Pd       3.85000000       1.92500000       9.62500000
Pt       5.77500000       0.00000000       9.62500000
Ru       5.77500000       1.92500000       7.70000000
Pt       3.85000000       3.85000000       0.00000000
Rh       3.85000000       5.77500000       1.92500000
Pd       5.77500000       3.85000000       1.92500000
Ir       5.77500000       5.77500000       0.00000000
Pd       3.85000000       3.85000000       3.85000000
Pt       3.85000000       5.77500000       5.77500000
Ir       5.77500000       3.85000000       5.77500000
Rh       5.77500000       5.77500000       3.85000000
Ir       3.85000000       3.85000000       7.70000000
Pt       3.85000000       5.77500000       9.62500000
Rh       5.77500000       3.85000000       9.62500000
Ir       5.77500000       5.77500000       7.70000000
Pt       3.85000000       7.70000000       0.00000000
Ru       3.85000000       9.62500000       1.92500000
Pd       5.77500000       7.70000000       1.92500000
Ir       5.77500000       9.62500000       0.00000000
Pt       3.85000000       7.70000000       3.85000000
Ru       3.85000000       9.62500000       5.77500000
Ir       5.77500000       7.70000000       5.77500000
Pd       5.77500000       9.62500000       3.85000000
Ir       3.85000000       7.70000000       7.70000000
Pt       3.85000000       9.62500000       9.62500000
Rh       5.77500000       7.70000000       9.62500000
Pt       5.77500000       9.62500000       7.70000000
Ir       7.70000000       0.00000000       0.00000000
Pt       7.70000000       1.92500000       1.92500000
Pt       9.62500000       0.00000000       1.92500000
Pd       9.62500000       1.92500000       0.00000000
Ir       7.70000000       0.00000000       3.85000000
Rh       7.70000000       1.92500000       5.77500000
Pt       9.62500000       0.00000000       5.77500000
Pd       9.62500000       1.92500000       3.85000000
Rh       7.70000000       0.00000000       7.70000000
Ru       7.70000000       1.92500000       9.62500000
Ru       9.62500000       0.00000000       9.62500000
Pd       9.62500000       1.92500000       7.70000000
Pd       7.70000000       3.85000000       0.00000000
Pt       7.70000000       5.77500000       1.92500000
Ir       9.62500000       3.85000000       1.92500000
Ru       9.62500000       5.77500000       0.00000000
Ir       7.70000000       3.85000000       3.85000000
Pt       7.70000000       5.77500000       5.77500000
Rh       9.62500000       3.85000000       5.77500000
Pd       9.62500000       5.77500000       3.85000000
Rh       7.70000000       3.85000000       7.70000000
Pt       7.70000000       5.77500000       9.62500000
Rh       9.62500000       3.85000000       9.62500000
Pd       9.62500000       5.77500000       7.70000000
Ru       7.70000000       7.70000000       0.00000000
Rh       7.70000000       9.62500000       1.92500000
Pd       9.62500000       7.70000000       1.92500000
Pt       9.62500000       9.62500000       0.00000000
Ir       7.70000000       7.70000000       3.85000000
Pt       7.70000000       9.62500000       5.77500000
Ru       9.62500000       7.70000000       5.77500000
Rh       9.62500000       9.62500000       3.85000000
Pt       7.70000000       7.70000000       7.70000000
Pt       7.70000000       9.62500000       9.62500000
Ir       9.62500000       7.70000000       9.62500000
Pt       9.62500000       9.62500000       7.70000000
108
Lattice="11.55 0.0 0.0 0.0 11.55 0.0 0.0 0.0 11.55" Properties=species:S:1:pos:R:3 energy=-801.894441 pbc="T T T"
Rh       0.00000000       0.00000000       0.00000000
Pd       0.00000000       1.92500000       1.92500000
Ru       1.92500000       0.00000000       1.92500000
Rh       1.92500000       1.92500000       0.00000000
Ru       0.00000000       0.00000000       3.85000000
Rh       0.00000000       1.92500000       5.77500000
Rh       1.92500000       0.00000000       5.77500000
Pd       1.92500000       1.92500000       3.85000000
Pd       0.00000000       0.00000000       7.70000000
Ir       0.00000000       1.92500000       9.62500000
Ir       1.92500000       0.00000000       9.62500000
Rh       1.92500000       1.92500000       7.70000000
Rh       0.00000000       3.85000000       0.00000000
Ir       0.00000000       5.77500000       1.92500000
Ru       1.92500000       3.85000000       1.92500000
Pd       1.92500000       5.77500000       0.00000000
Pt       0.00000000       3.85000000       3.85000000
Pd       0.00000000       5.77500000       5.77500000
Pd       1.92500000       3.85000000       5.77500000
Ru       1.92500000       5.77500000       3.85000000
Pt       0.00000000       3.85000000       7.70000000
Pd       0.00000000       5.77500000       9.62500000
Pd       1.92500000       3.85000000       9.62500000
Pt       1.92500000       5.77500000       7.70000000
Ru       0.00000000       7.70000000       0.00000000
Ir       0.00000000       9.62500000       1.92500000
Ru       1.92500000       7.70000000       1.92500000
Rh       1.92500000       9.62500000       0.00000000
Rh       0.00000000       7.70000000       3.85000000
Ir       0.00000000       9.62500000       5.77500000
Rh       1.92500000       7.70000000       5.77500000
Pd       1.92500000       9.62500000       3.85000000
Ir       0.00000000       7.70000000       7.70000000
Ru       0.00000000       9.62500000       9.62500000
Ru       1.92500000       7.70000000       9.62500000
Rh       1.92500000       9.62500000       7.70000000
Ru       3.85000000       0.00000000       0.00000000
Rh       3.85000000       1.92500000       1.92500000
Ru       5.77500000       0.00000000       1.92500000
Rh       5.77500000       1.92500000       0.00000000
Pt       3.85000000       0.00000000       3.85000000
Rh       3.85000000       1.92500000       5.77500000
Pt       5.77500000       0.00000000       5.77500000
Rh       5.77500000       1.92500000       3.85000000
Ru       3.85000000       0.00000000       7.70000000
Ru       3.85000000       1.92500000       9.62500000
Pd       5.77500000       0.00000000       9.62500000
Ru       5.77500000       1.92500000       7.70000000
Ir       3.85000000       3.85000000       0.00000000
Ru       3.85000000       5.77500000       1.92500000
Ru       5.77500000       3.85000000       1.92500000
Ir       5.77500000       5.77500000       0.00000000
Ir       3.85000000       3.85000000       3.85000000
Rh       3.85000000       5.77500000       5.77500000
Pd       5.77500000       3.85000000       5.77500000
Pt       5.77500000       5.77500000       3.85000000
Ru       3.85000000       3.85000000       7.70000000
Pd       3.85000000       5.77500000       9.62500000
Pd       5.77500000       3.85000000       9.62500000
Pt       5.77500000       5.77500000       7.70000000
Pd       3.85000000       7.70000000       0.00000000
Ir       3.85000000       9.62500000       1.92500000
Ru       5.77500000       7.70000000       1.92500000
Rh       5.77500000       9.62500000       0.00000000
Ir       3.85000000       7.70000000       3.85000000
Ir       3.85000000       9.62500000       5.77500000
Rh       5.77500000       7.70000000       5.77500000
Ru       5.77500000       9.62500000       3.85000000
Ru       3.85000000       7.70000000       7.70000000
Pt       3.85000000       9.62500000       9.62500000
Ir       5.77500000       7.70000000       9.62500000
Ir       5.77500000       9.62500000       7.70000000
Ru       7.70000000       0.00000000       0.00000000
Ir       7.70000000       1.92500000       1.92500000
Rh       9.62500000       0.00000000       1.92500000
Pt       9.62500000       1.92500000       0.00000000
Pt       7.70000000       0.00000000       3.85000000
Pt       7.70000000       1.92500000       5.77500000
Pd       9.62500000       0.00000000       5.77500000
Ru       9.62500000       1.92500000       3.85000000
Pd       7.70000000       0.00000000       7.70000000
Rh       7.70000000       1.92500000       9.62500000
Ir       9.62500000       0.00000000       9.62500000
Ir       9.62500000       1.92500000       7.70000000
Pd       7.70000000       3.85000000       0.00000000
Ru       7.70000000       5.77500000       1.92500000
Ru       9.62500000       3.85000000       1.92500000
Pt       9.62500000       5.77500000       0.00000000
Rh       7.70000000       3.85000000       3.85000000
Pd       7.70000000       5.77500000       5.77500000
Ru       9.62500000       3.85000000       5.77500000
Pd       9.62500000       5.77500000       3.85000000
Ru       7.70000000       3.85000000       7.70000000
Pt       7.70000000       5.77500000       9.62500000
Pt       9.62500000       3.85000000       9.62500000
Pd       9.62500000       5.77500000       7.70000000
Ru       7.70000000       7.70000000       0.00000000
Rh       7.70000000       9.62500000       1.92500000
Pd       9.62500000       7.70000000       1.92500000
Ir       9.62500000       9.62500000       0.00000000
Ir       7.70000000       7.70000000       3.85000000
Ir       7.70000000       9.62500000       5.77500000
Ir       9.62500000       7.70000000       5.77500000
Pt       9.62500000       9.62500000       3.85000000
Pt       7.70000000       7.70000000       7.70000000
Pt       7.70000000       9.62500000       9.62500000
Pt       9.62500000       7.70000000       9.62500000
Ir       9.62500000       9.62500000       7.70000000
108
Lattice="11.55 0.0 0.0 0.0 11.55 0.0 0.0 0.0 11.55" Properties=species:S:1:pos:R:3 energy=-802.01043 pbc="T T T"
Pd       0.00000000       0.00000000       0.00000000
Ru       0.00000000       1.92500000       1.92500000
Pd       1.92500000       0.00000000       1.92500000
Pd       1.92500000       1.92500000       0.00000000
Ru       0.00000000       0.00000000       3.85000000
Pt       0.00000000       1.92500000       5.77500000
Ir       1.92500000       0.00000000       5.77500000
Ir       1.92500000       1.92500000       3.85000000
Pt       0.00000000       0.00000000       7.70000000
Ir       0.00000000       1.92500000       9.62500000
Rh       1.92500000       0.00000000       9.62500000
Pt       1.92500000       1.92500000       7.70000000
Rh       0.00000000       3.85000000       0.00000000
Rh       0.00000000       5.77500000       1.92500000
Rh       1.92500000       3.85000000       1.92500000
Ir       1.92500000       5.77500000       0.00000000
Ru       0.00000000       3.85000000       3.85000000
Pd       0.00000000       5.77500000       5.77500000
Pd       1.92500000       3.85000000       5.77500000
Ir       1.92500000       5.77500000       3.85000000
Ru       0.00000000       3.85000000       7.70000000
Ru       0.00000000       5.77500000       9.62500000
Ru       1.92500000       3.85000000       9.62500000
Ru       1.92500000       5.77500000       7.70000000
Ru       0.00000000       7.70000000       0.00000000
Ir       0.00000000       9.62500000       1.92500000
Pd       1.92500000       7.70000000       1.92500000
Pt       1.92500000       9.62500000       0.00000000
Ir       0.00000000       7.70000000       3.85000000
Ir       0.00000000       9.62500000       5.77500000
Ir       1.92500000       7.70000000       5.77500000
Pt       1.92500000       9.62500000       3.85000000
Rh       0.00000000       7.70000000       7.70000000
Pt       0.00000000       9.62500000       9.62500000
Ir       1.92500000       7.70000000       9.62500000
Ir       1.92500000       9.62500000       7.70000000
Ir       3.85000000       0.00000000       0.00000000
Ru       3.85000000       1.92500000       1.92500000
Pt       5.77500000       0.00000000       1.92500000
Pd       5.77500000       1.92500000       0.00000000
Pt       3.85000000       0.00000000       3.85000000
Pt       3.85000000       1.92500000       5.77500000
Rh       5.77500000       0.00000000       5.77500000
Pt       5.77500000       1.92500000       3.85000000
Ir       3.85000000       0.00000000       7.70000000
Ir       3.85000000       1.92500000       9.62500000
Pt       5.77500000       0.00000000       9.62500000
Rh       5.77500000       1.92500000       7.70000000
Rh       3.85000000       3.85000000       0.00000000
Ir       3.85000000       5.77500000       1.92500000
Ir       5.77500000       3.85000000       1.92500000
Rh       5.77500000       5.77500000       0.00000000
Rh       3.85000000       3.85000000       3.85000000
Pd       3.85000000       5.77500000       5.77500000
Ir       5.77500000       3.85000000       5.77500000
Rh       5.77500000       5.77500000       3.85000000
Rh       3.85000000       3.85000000       7.70000000
Ru       3.85000000       5.77500000       9.62500000
Pd       5.77500000       3.85000000       9.62500000
Pt       5.77500000       5.77500000       7.70000000
Pt       3.85000000       7.70000000       0.00000000
Ir       3.85000000       9.62500000       1.92500000
Ir       5.77500000       7.70000000       1.92500000
Ru       5.77500000       9.62500000       0.00000000
Pt       3.85000000       7.70000000       3.85000000
Pt       3.85000000       9.62500000       5.77500000
Ir       5.77500000       7.70000000       5.77500000
Ir       5.77500000       9.62500000       3.85000000
Ru       3.85000000       7.70000000       7.70000000
Pt       3.85000000       9.62500000       9.62500000
Rh       5.77500000       7.70000000       9.62500000
Pt       5.77500000       9.62500000       7.70000000
Pd       7.70000000       0.00000000       0.00000000
Pd       7.70000000       1.92500000       1.92500000
Rh       9.62500000       0.00000000       1.92500000
Pd       9.62500000       1.92500000       0.00000000
Pt       7.70000000       0.00000000       3.85000000
Ru       7.70000000       1.92500000       5.77500000
Pt       9.62500000       0.00000000       5.77500000
Ir       9.62500000       1.92500000       3.85000000
Ru       7.70000000       0.00000000       7.70000000
Ir       7.70000000       1.92500000       9.62500000
Ru       9.62500000       0.00000000       9.62500000
Rh       9.62500000       1.92500000       7.70000000
Pd       7.70000000       3.85000000       0.00000000
Pt       7.70000000       5.77500000       1.92500000
Rh       9.62500000       3.85000000       1.92500000
Ir       9.62500000       5.77500000       0.00000000
Ru       7.70000000       3.85000000       3.85000000
Pd       7.70000000       5.77500000       5.77500000
Rh       9.62500000       3.85000000       5.77500000
Pd       9.62500000       5.77500000       3.85000000
Ru       7.70000000       3.85000000       7.70000000
Pt       7.70000000       5.77500000       9.62500000
Ru       9.62500000       3.85000000       9.62500000
Pd       9.62500000       5.77500000       7.70000000
Rh       7.70000000       7.70000000       0.00000000
Pd       7.70000000       9.62500000       1.92500000
Ru       9.62500000       7.70000000       1.92500000
Rh       9.62500000       9.62500000       0.00000000
Pt       7.70000000       7.70000000       3.85000000
Ir       7.70000000       9.62500000       5.77500000
Ir       9.62500000       7.70000000       5.77500000
Rh       9.62500000       9.62500000       3.85000000
Pd       7.70000000       7.70000000       7.70000000
Ru       7.70000000       9.62500000       9.62500000
Ru       9.62500000       7.70000000       9.62500000
Ru       9.62500000       9.62500000       7.70000000
108
Lattice="11.55 0.0 0.0 0.0 11.55 0.0 0.0 0.0 11.55" Properties=species:S:1:pos:R:3 energy=-771.426101 pbc="T T T"
Rh       0.00000000       0.00000000       0.00000000
Pt       0.00000000       1.92500000       1.92500000
Pt       1.92500000       0.00000000       1.92500000
Pd       1.92500000       1.92500000       0.00000000
Pt       0.00000000       0.00000000       3.85000000
Ir       0.00000000       1.92500000       5.77500000
Pt       1.92500000       0.00000000       5.77500000
Ru       1.92500000       1.92500000       3.85000000
Pd       0.00000000       0.00000000       7.70000000
Ir       0.00000000       1.92500000       9.62500000
Ru       1.92500000       0.00000000       9.62500000
Pd       1.92500000       1.92500000       7.70000000
Pd       0.00000000       3.85000000       0.00000000
Pt       0.00000000       5.77500000       1.92500000
Pd       1.92500000       3.85000000       1.92500000
Pd       1.92500000       5.77500000       0.00000000
Ir       0.00000000       3.85000000       3.85000000
Pd       0.00000000       5.77500000       5.77500000
Ru       1.92500000       3.85000000       5.77500000
Pt       1.92500000       5.77500000       3.85000000
Ir       0.00000000       3.85000000       7.70000000
Pd       0.00000000       5.77500000       9.62500000
Pt       1.92500000       3.85000000       9.62500000
Rh       1.92500000       5.77500000       7.70000000
Pt       0.00000000       7.70000000       0.00000000
Ir       0.00000000       9.62500000       1.92500000
Pd       1.92500000       7.70000000       1.92500000
Ru       1.92500000       9.62500000       0.00000000
Ir       0.00000000       7.70000000       3.85000000
Rh       0.00000000       9.62500000       5.77500000
Ru       1.92500000       7.70000000       5.77500000
Rh       1.92500000       9.62500000       3.85000000
Ir       0.00000000       7.70000000       7.70000000
Rh       0.00000000       9.62500000       9.62500000
Pt       1.92500000       7.70000000       9.62500000
Rh       1.92500000       9.62500000       7.70000000
Rh       3.85000000       0.00000000       0.00000000
Pt       3.85000000       1.92500000       1.92500000
Pd       5.77500000       0.00000000       1.92500000
Ir       5.77500000       1.92500000       0.00000000
Pt       3.85000000       0.00000000       3.85000000
Rh       3.85000000       1.92500000       5.77500000
Ir       5.77500000       0.00000000       5.77500000
Ru       5.77500000       1.92500000       3.85000000
Pt       3.85000000       0.00000000       7.70000000
Pt       3.85000000       1.92500000       9.62500000
Pd       5.77500000       0.00000000       9.62500000
Pd       5.77500000       1.92500000       7.70000000
Pt       3.85000000       3.85000000       0.00000000
Ru       3.85000000       5.77500000       1.92500000
Ru       5.77500000       3.85000000       1.92500000
Ru       5.77500000       5.77500000       0.00000000
Pt       3.85000000       3.85000000       3.85000000
Rh       3.85000000       5.77500000       5.77500000
Rh       5.77500000       3.85000000       5.77500000
Pt       5.77500000       5.77500000       3.85000000
Pd       3.85000000       3.85000000       7.70000000
Ru       3.85000000       5.77500000       9.62500000
Pt       5.77500000       3.85000000       9.62500000
Ru       5.77500000       5.77500000       7.70000000
Pd       3.85000000       7.70000000       0.00000000
Rh       3.85000000       9.62500000       1.92500000
Pt       5.77500000       7.70000000       1.92500000
Pt       5.77500000       9.62500000       0.00000000
Rh       3.85000000       7.70000000       3.85000000
Ir       3.85000000       9.62500000       5.77500000
Pd       5.77500000       7.70000000       5.77500000
Pt       5.77500000       9.62500000       3.85000000
Ru       3.85000000       7.70000000       7.70000000
Pt       3.85000000       9.62500000       9.62500000
Ir       5.77500000       7.70000000       9.62500000
Pd       5.77500000       9.62500000       7.70000000
Ir       7.70000000       0.00000000       0.00000000
Pt       7.70000000       1.92500000       1.92500000
Rh       9.62500000       0.00000000       1.92500000
Ir       9.62500000       1.92500000       0.00000000
Rh       7.70000000       0.00000000       3.85000000
Ir       7.70000000       1.92500000       5.77500000
Pt       9.62500000       0.00000000       5.77500000
Rh       9.62500000       1.92500000       3.85000000
Ir       7.70000000       0.00000000       7.70000000
Ru       7.70000000       1.92500000       9.62500000
Pd       9.62500000       0.00000000       9.62500000
Pt       9.62500000       1.92500000       7.70000000
Rh       7.70000000       3.85000000       0.00000000
Rh       7.70000000       5.77500000       1.92500000
Rh       9.62500000       3.85000000       1.92500000
Rh       9.62500000       5.77500000       0.00000000
Ru       7.70000000       3.85000000       3.85000000
Pd       7.70000000       5.77500000       5.77500000
Ru       9.62500000       3.85000000       5.77500000
Pd       9.62500000       5.77500000       3.85000000
Ir       7.70000000       3.85000000       7.70000000
Ru       7.70000000       5.77500000       9.62500000
Pt       9.62500000       3.85000000       9.62500000
Rh       9.62500000       5.77500000       7.70000000
Pt       7.70000000       7.70000000       0.00000000
Ir       7.70000000       9.62500000       1.92500000
Pd       9.62500000       7.70000000       1.92500000
Ru       9.62500000       9.62500000       0.00000000
Ir       7.70000000       7.70000000       3.85000000
Ir       7.70000000       9.62500000       5.77500000
Pd       9.62500000       7.70000000       5.77500000
Ir       9.62500000       9.62500000       3.85000000
Rh       7.70000000       7.70000000       7.70000000
Ru       7.70000000       9.62500000       9.62500000
Pt       9.62500000       7.70000000       9.62500000
Pt       9.62500000       9.62500000       7.70000000
108
Lattice="11.55 0.0 0.0 0.0 11.55 0.0 0.0 0.0 11.55" Properties=species:S:1:pos:R:3 energy=-799.438894 pbc="T T T"
Pd       0.00000000       0.00000000       0.00000000
Pt       0.00000000       1.92500000       1.92500000
Rh       1.92500000       0.00000000       1.92500000
Rh       1.92500000       1.92500000       0.00000000
Ru       0.00000000       0.00000000       3.85000000
Rh       0.00000000       1.92500000       5.77500000
Ru       1.92500000       0.00000000       5.77500000
Ru       1.92500000       1.92500000       3.85000000
Ir       0.00000000       0.00000000       7.70000000
Pt       0.00000000       1.92500000       9.62500000
Rh       1.92500000       0.00000000       9.62500000
Rh       1.92500000       1.92500000       7.70000000
Pt       0.00000000       3.85000000       0.00000000
Ir       0.00000000       5.77500000       1.92500000
Rh       1.92500000       3.85000000       1.92500000
Ru       1.92500000       5.77500000       0.00000000
Pd       0.00000000       3.85000000       3.85000000
Ir       0.00000000       5.77500000       5.77500000
Pt       1.92500000       3.85000000       5.77500000
Ru       1.92500000       5.77500000       3.85000000
Pd       0.00000000       3.85000000       7.70000000
Ir       0.00000000       5.77500000       9.62500000
Ru       1.92500000       3.85000000       9.62500000
Pd       1.92500000       5.77500000       7.70000000
Rh       0.00000000       7.70000000       0.00000000
Ru       0.00000000       9.62500000       1.92500000
Ir       1.92500000       7.70000000       1.92500000
Rh       1.92500000       9.62500000       0.00000000
Ir       0.00000000       7.70000000       3.85000000
Rh       0.00000000       9.62500000       5.77500000
Ir       1.92500000       7.70000000       5.77500000
Ru       1.92500000       9.62500000       3.85000000
Ru       0.00000000       7.70000000       7.70000000
Ru       0.00000000       9.62500000       9.62500000
Ir       1.92500000       7.70000000       9.62500000
Rh       1.92500000       9.62500000       7.70000000
Pd       3.85000000       0.00000000       0.00000000
Pt       3.85000000       1.92500000       1.92500000
Pd       5.77500000       0.00000000       1.92500000
Ru       5.77500000       1.92500000       0.00000000
Pd       3.85000000       0.00000000       3.85000000
Ru       3.85000000       1.92500000       5.77500000
Pt       5.77500000       0.00000000       5.77500000
Rh       5.77500000       1.92500000       3.85000000
Pt       3.85000000       0.00000000       7.70000000
Pd       3.85000000       1.92500000       9.62500000
Ru       5.77500000       0.00000000       9.62500000
Rh       5.77500000       1.92500000       7.70000000
Pt       3.85000000       3.85000000       0.00000000
Rh       3.85000000       5.77500000       1.92500000
Pd       5.77500000       3.85000000       1.92500000
Pd       5.77500000       5.77500000       0.00000000
Pd       3.85000000       3.85000000       3.85000000
Pt       3.85000000       5.77500000       5.77500000
Ru       5.77500000       3.85000000       5.77500000
Pt       5.77500000       5.77500000       3.85000000
Pt       3.85000000       3.85000000       7.70000000
Ru       3.85000000       5.77500000       9.62500000
Rh       5.77500000       3.85000000       9.62500000
Pt       5.77500000       5.77500000       7.70000000
Pt       3.85000000       7.70000000       0.00000000
Ir       3.85000000       9.62500000       1.92500000
Ru       5.77500000       7.70000000       1.92500000
Rh       5.77500000       9.62500000       0.00000000
Rh       3.85000000       7.70000000       3.85000000
Rh       3.85000000       9.62500000       5.77500000
Pt       5.77500000       7.70000000       5.77500000
Rh       5.77500000       9.62500000       3.85000000
Pt       3.85000000       7.70000000       7.70000000
Rh       3.85000000       9.62500000       9.62500000
Pt       5.77500000       7.70000000       9.62500000
Ir       5.77500000       9.62500000       7.70000000
Ir       7.70000000       0.00000000       0.00000000
Pd       7.70000000       1.92500000       1.92500000
Rh       9.62500000       0.00000000       1.92500000
Pd       9.62500000       1.92500000       0.00000000
Ru       7.70000000       0.00000000       3.85000000
Pd       7.70000000       1.92500000       5.77500000
Ru       9.62500000       0.00000000       5.77500000
Ru       9.62500000       1.92500000       3.85000000
Ru       7.70000000       0.00000000       7.70000000
Rh       7.70000000       1.92500000       9.62500000
Ir       9.62500000       0.00000000       9.62500000
Rh       9.62500000       1.92500000       7.70000000
Pt       7.70000000       3.85000000       0.00000000
Pt       7.70000000       5.77500000       1.92500000
Ir       9.62500000       3.85000000       1.92500000
Rh       9.62500000       5.77500000       0.00000000
Ir       7.70000000       3.85000000       3.85000000
Pd       7.70000000       5.77500000       5.77500000
Pt       9.62500000       3.85000000       5.77500000
Pd       9.62500000       5.77500000       3.85000000
Rh       7.70000000       3.85000000       7.70000000
Rh       7.70000000       5.77500000       9.62500000
Pd       9.62500000       3.85000000       9.62500000
Ru       9.62500000       5.77500000       7.70000000
Ir       7.70000000       7.70000000       0.00000000
Ru       7.70000000       9.62500000       1.92500000
Ru       9.62500000       7.70000000       1.92500000
Ir       9.62500000       9.62500000       0.00000000
Pt       7.70000000       7.70000000       3.85000000
Ir       7.70000000       9.62500000       5.77500000
Ir       9.62500000       7.70000000       5.77500000
Ru       9.62500000       9.62500000       3.85000000
Pd       7.70000000       7.70000000       7.70000000
Ru       7.70000000       9.62500000       9.62500000
Ir       9.62500000       7.70000000       9.62500000
Pt       9.62500000       9.62500000       7.70000000
108
Lattice="11.55 0.0 0.0 0.0 11.55 0.0 0.0 0.0 11.55" Properties=species:S:1:pos:R:3 energy=-754.747055 pbc="T T T"
Pt       0.00000000       0.00000000       0.00000000
Pd       0.00000000       1.92500000       1.92500000